                                                                                     
                             WELCOME TO ABACUS v3.0                                  
                                                                                     
               'Atomic-orbital Based Ab-initio Computation at UStc'                  
                                                                                     
                     Website: http://abacus.ustc.edu.cn/                             
                                                                                     
    Version: Parallel, in development
    Processor Number is 20
    Start Time is Wed Dec 28 04:54:22 2022
                                                                                     
 ------------------------------------------------------------------------------------

 READING GENERAL INFORMATION
                           global_out_dir = OUT.abacus/
                           global_in_card = INPUT
                               pseudo_dir = 
                              orbital_dir = 
                                    DRANK = 1
                                    DSIZE = 20
                                   DCOLOR = 1
                                    GRANK = 1
                                    GSIZE = 1
 The esolver type has been set to : ksdft_pw




 >>>>>>>>>>>>>>>>>>>>>>>>>>>>>>>>>>>>>>>>>>>>>>>>>>>>>>>>>>>>>>>>>>>>>>
 |                                                                    |
 | Reading atom information in unitcell:                              |
 | From the input file and the structure file we know the number of   |
 | different elments in this unitcell, then we list the detail        |
 | information for each element, especially the zeta and polar atomic |
 | orbital number for each element. The total atom number is counted. |
 | We calculate the nearest atom distance for each atom and show the  |
 | Cartesian and Direct coordinates for each atom. We list the file   |
 | address for atomic orbitals. The volume and the lattice vectors    |
 | in real and reciprocal space is also shown.                        |
 |                                                                    |
 <<<<<<<<<<<<<<<<<<<<<<<<<<<<<<<<<<<<<<<<<<<<<<<<<<<<<<<<<<<<<<<<<<<<<<




 READING UNITCELL INFORMATION
                                    ntype = 4
                 atom label for species 1 = H
                 atom label for species 2 = O
                 atom label for species 3 = N
                 atom label for species 4 = C
                  lattice constant (Bohr) = 1.88973
              lattice constant (Angstrom) = 1

 READING ATOM TYPE 1
                               atom label = H
                      L=0, number of zeta = 1
                      L=1, number of zeta = 1
                      L=2, number of zeta = 1
             number of atom for this type = 113
                      start magnetization = FALSE
                      start magnetization = FALSE
                      start magnetization = FALSE
                      start magnetization = FALSE
                      start magnetization = FALSE
                      start magnetization = FALSE
                      start magnetization = FALSE
                      start magnetization = FALSE
                      start magnetization = FALSE
                      start magnetization = FALSE
                      start magnetization = FALSE
                      start magnetization = FALSE
                      start magnetization = FALSE
                      start magnetization = FALSE
                      start magnetization = FALSE
                      start magnetization = FALSE
                      start magnetization = FALSE
                      start magnetization = FALSE
                      start magnetization = FALSE
                      start magnetization = FALSE
                      start magnetization = FALSE
                      start magnetization = FALSE
                      start magnetization = FALSE
                      start magnetization = FALSE
                      start magnetization = FALSE
                      start magnetization = FALSE
                      start magnetization = FALSE
                      start magnetization = FALSE
                      start magnetization = FALSE
                      start magnetization = FALSE
                      start magnetization = FALSE
                      start magnetization = FALSE
                      start magnetization = FALSE
                      start magnetization = FALSE
                      start magnetization = FALSE
                      start magnetization = FALSE
                      start magnetization = FALSE
                      start magnetization = FALSE
                      start magnetization = FALSE
                      start magnetization = FALSE
                      start magnetization = FALSE
                      start magnetization = FALSE
                      start magnetization = FALSE
                      start magnetization = FALSE
                      start magnetization = FALSE
                      start magnetization = FALSE
                      start magnetization = FALSE
                      start magnetization = FALSE
                      start magnetization = FALSE
                      start magnetization = FALSE
                      start magnetization = FALSE
                      start magnetization = FALSE
                      start magnetization = FALSE
                      start magnetization = FALSE
                      start magnetization = FALSE
                      start magnetization = FALSE
                      start magnetization = FALSE
                      start magnetization = FALSE
                      start magnetization = FALSE
                      start magnetization = FALSE
                      start magnetization = FALSE
                      start magnetization = FALSE
                      start magnetization = FALSE
                      start magnetization = FALSE
                      start magnetization = FALSE
                      start magnetization = FALSE
                      start magnetization = FALSE
                      start magnetization = FALSE
                      start magnetization = FALSE
                      start magnetization = FALSE
                      start magnetization = FALSE
                      start magnetization = FALSE
                      start magnetization = FALSE
                      start magnetization = FALSE
                      start magnetization = FALSE
                      start magnetization = FALSE
                      start magnetization = FALSE
                      start magnetization = FALSE
                      start magnetization = FALSE
                      start magnetization = FALSE
                      start magnetization = FALSE
                      start magnetization = FALSE
                      start magnetization = FALSE
                      start magnetization = FALSE
                      start magnetization = FALSE
                      start magnetization = FALSE
                      start magnetization = FALSE
                      start magnetization = FALSE
                      start magnetization = FALSE
                      start magnetization = FALSE
                      start magnetization = FALSE
                      start magnetization = FALSE
                      start magnetization = FALSE
                      start magnetization = FALSE
                      start magnetization = FALSE
                      start magnetization = FALSE
                      start magnetization = FALSE
                      start magnetization = FALSE
                      start magnetization = FALSE
                      start magnetization = FALSE
                      start magnetization = FALSE
                      start magnetization = FALSE
                      start magnetization = FALSE
                      start magnetization = FALSE
                      start magnetization = FALSE
                      start magnetization = FALSE
                      start magnetization = FALSE
                      start magnetization = FALSE
                      start magnetization = FALSE
                      start magnetization = FALSE
                      start magnetization = FALSE
                      start magnetization = FALSE
                      start magnetization = FALSE

 READING ATOM TYPE 2
                               atom label = O
                      L=0, number of zeta = 1
                      L=1, number of zeta = 1
                      L=2, number of zeta = 1
             number of atom for this type = 56
                      start magnetization = FALSE
                      start magnetization = FALSE
                      start magnetization = FALSE
                      start magnetization = FALSE
                      start magnetization = FALSE
                      start magnetization = FALSE
                      start magnetization = FALSE
                      start magnetization = FALSE
                      start magnetization = FALSE
                      start magnetization = FALSE
                      start magnetization = FALSE
                      start magnetization = FALSE
                      start magnetization = FALSE
                      start magnetization = FALSE
                      start magnetization = FALSE
                      start magnetization = FALSE
                      start magnetization = FALSE
                      start magnetization = FALSE
                      start magnetization = FALSE
                      start magnetization = FALSE
                      start magnetization = FALSE
                      start magnetization = FALSE
                      start magnetization = FALSE
                      start magnetization = FALSE
                      start magnetization = FALSE
                      start magnetization = FALSE
                      start magnetization = FALSE
                      start magnetization = FALSE
                      start magnetization = FALSE
                      start magnetization = FALSE
                      start magnetization = FALSE
                      start magnetization = FALSE
                      start magnetization = FALSE
                      start magnetization = FALSE
                      start magnetization = FALSE
                      start magnetization = FALSE
                      start magnetization = FALSE
                      start magnetization = FALSE
                      start magnetization = FALSE
                      start magnetization = FALSE
                      start magnetization = FALSE
                      start magnetization = FALSE
                      start magnetization = FALSE
                      start magnetization = FALSE
                      start magnetization = FALSE
                      start magnetization = FALSE
                      start magnetization = FALSE
                      start magnetization = FALSE
                      start magnetization = FALSE
                      start magnetization = FALSE
                      start magnetization = FALSE
                      start magnetization = FALSE
                      start magnetization = FALSE
                      start magnetization = FALSE
                      start magnetization = FALSE
                      start magnetization = FALSE

 READING ATOM TYPE 3
                               atom label = N
                      L=0, number of zeta = 1
                      L=1, number of zeta = 1
                      L=2, number of zeta = 1
             number of atom for this type = 1
                      start magnetization = FALSE

 READING ATOM TYPE 4
                               atom label = C
                      L=0, number of zeta = 1
                      L=1, number of zeta = 1
                      L=2, number of zeta = 1
             number of atom for this type = 2
                      start magnetization = FALSE
                      start magnetization = FALSE

                        TOTAL ATOM NUMBER = 172

 CARTESIAN COORDINATES ( UNIT = 1.88973 Bohr ).
         atom                   x                   y                   z                 mag                  vx                  vy                  vz
      tauc_H1             10.4849            3.074143       7.23717499999                   0                   0                   0                   0
      tauc_H2           11.470311           11.003229       0.48834099999                   0                   0                   0                   0
      tauc_H3       4.05830100001       1.24429699999           10.861234                   0                   0                   0                   0
      tauc_H4            3.585275            2.493688           11.538435                   0                   0                   0                   0
      tauc_H5            5.484697            4.583033       6.25104300001                   0                   0                   0                   0
      tauc_H6             9.64375           10.030562       1.78851600001                   0                   0                   0                   0
      tauc_H7            2.713673            4.741648            3.611327                   0                   0                   0                   0
      tauc_H8            2.670778       4.30014300001       2.17429400001                   0                   0                   0                   0
      tauc_H9       3.17724399999             2.35406            3.275009                   0                   0                   0                   0
     tauc_H10            4.242339       1.83734900001            2.293681                   0                   0                   0                   0
     tauc_H11            5.556154       6.30208400001       7.49071799999                   0                   0                   0                   0
     tauc_H12       1.71182099999            6.852675            3.117062                   0                   0                   0                   0
     tauc_H13           11.750349            4.088391       1.51196900001                   0                   0                   0                   0
     tauc_H14      0.294081000005       3.39418300001      0.268065000007                   0                   0                   0                   0
     tauc_H15       7.35065899999           11.466993            1.230553                   0                   0                   0                   0
     tauc_H16       6.64743400001           10.568925            2.287113                   0                   0                   0                   0
     tauc_H17       9.92992300001            11.38532       2.63757800001                   0                   0                   0                   0
     tauc_H18       9.15896200001            4.384104           11.766889                   0                   0                   0                   0
     tauc_H19            5.149095            8.672491           11.533934                   0                   0                   0                   0
     tauc_H20            5.085541            9.392508           10.214571                   0                   0                   0                   0
     tauc_H21      0.795992999997           11.578526            8.499176                   0                   0                   0                   0
     tauc_H22            1.848097           11.618224       9.65996600001                   0                   0                   0                   0
     tauc_H23           11.285648       5.90418600001       8.25170900001                   0                   0                   0                   0
     tauc_H24           10.793449       3.87290699999       9.11577999999                   0                   0                   0                   0
     tauc_H25            8.523953           10.078845             6.28514                   0                   0                   0                   0
     tauc_H26            7.746755           11.325424       6.27996300001                   0                   0                   0                   0
     tauc_H27       5.25306499999           11.491762       5.30227300001                   0                   0                   0                   0
     tauc_H28       5.42445900001      0.440484000007             6.47718                   0                   0                   0                   0
     tauc_H29       6.75003899999           10.119482       8.22661399999                   0                   0                   0                   0
     tauc_H30            7.354972       8.67198899999            7.848665                   0                   0                   0                   0
     tauc_H31      0.644455000002           10.350385       3.88220700001                   0                   0                   0                   0
     tauc_H32           11.486888       9.75714700001            4.245734                   0                   0                   0                   0
     tauc_H33       7.79316899999       7.56611399999       9.60253900001                   0                   0                   0                   0
     tauc_H34             9.15487       7.66975900001           10.277787                   0                   0                   0                   0
     tauc_H35             1.39081           10.930776       1.77795599999                   0                   0                   0                   0
     tauc_H36            1.649927       9.40663899999            1.799818                   0                   0                   0                   0
     tauc_H37      0.228559000001            6.002224       4.78471199999                   0                   0                   0                   0
     tauc_H38           10.909422       5.16150299999            4.903618                   0                   0                   0                   0
     tauc_H39       6.14184500001           11.308792           11.258644                   0                   0                   0                   0
     tauc_H40       5.23858500001           11.798188      0.408461999992                   0                   0                   0                   0
     tauc_H41       2.79877099999           11.825076            7.249232                   0                   0                   0                   0
     tauc_H42       5.78586699999            5.465284       3.66070799999                   0                   0                   0                   0
     tauc_H43       4.34067800001       5.88225200001            4.957059                   0                   0                   0                   0
     tauc_H44       3.51130900001            4.661574            5.373953                   0                   0                   0                   0
     tauc_H45       7.21271099999            7.805517           11.971887                   0                   0                   0                   0
     tauc_H46            10.59851             1.65446       9.66517399999                   0                   0                   0                   0
     tauc_H47       9.64357299999            8.400467            7.793028                   0                   0                   0                   0
     tauc_H48            5.996808       6.06709500001            8.883626                   0                   0                   0                   0
     tauc_H49            2.910331      0.515333999996            5.690068                   0                   0                   0                   0
     tauc_H50            2.013369           11.496864       4.98409300001                   0                   0                   0                   0
     tauc_H51       7.85641099999            8.955382       3.52885399999                   0                   0                   0                   0
     tauc_H52            7.500228       7.52579300001       3.70438100001                   0                   0                   0                   0
     tauc_H53            8.989779             8.20786            1.511197                   0                   0                   0                   0
     tauc_H54            8.368102       6.94516199999       5.39779800001                   0                   0                   0                   0
     tauc_H55       6.86393800001       6.42815300001           11.898721                   0                   0                   0                   0
     tauc_H56            5.257915           11.592036       8.71510499999                   0                   0                   0                   0
     tauc_H57            3.561382       0.72777799999       8.23864300001                   0                   0                   0                   0
     tauc_H58           11.664139            7.304322            7.529362                   0                   0                   0                   0
     tauc_H59           11.582942            7.175795            1.115611                   0                   0                   0                   0
     tauc_H60           11.504402       5.95614299999      0.217399999992                   0                   0                   0                   0
     tauc_H61             9.83708       7.50673299999      0.565287999993                   0                   0                   0                   0
     tauc_H62            9.672397            8.065307            6.319191                   0                   0                   0                   0
     tauc_H63            6.890275            4.256326           10.904741                   0                   0                   0                   0
     tauc_H64            7.378229            4.559404       9.49646600001                   0                   0                   0                   0
     tauc_H65            9.622339       1.40227999999       4.22551400001                   0                   0                   0                   0
     tauc_H66     0.0513170000082       1.36903800001            9.536405                   0                   0                   0                   0
     tauc_H67            5.105662            8.063862            8.321332                   0                   0                   0                   0
     tauc_H68            4.069465            8.955448       7.67794600001                   0                   0                   0                   0
     tauc_H69           10.597209       4.59548200001           10.392962                   0                   0                   0                   0
     tauc_H70           11.920041           11.496498           11.117159                   0                   0                   0                   0
     tauc_H71       7.29088400001            6.503335            6.378965                   0                   0                   0                   0
     tauc_H72            6.179358      0.759696000004            9.189317                   0                   0                   0                   0
     tauc_H73            9.266873       5.33421899999      0.851068000003                   0                   0                   0                   0
     tauc_H74           10.829063       6.22386399999       3.06392100001                   0                   0                   0                   0
     tauc_H75            8.268876            2.467161       5.49730400001                   0                   0                   0                   0
     tauc_H76            7.679023            1.070879            5.663517                   0                   0                   0                   0
     tauc_H77            6.012228            6.593275            2.527356                   0                   0                   0                   0
     tauc_H78       4.67356399999       8.88792000001       2.38957000001                   0                   0                   0                   0
     tauc_H79           11.525167       2.61250500001            3.321405                   0                   0                   0                   0
     tauc_H80      0.709573000004            3.435302            3.579788                   0                   0                   0                   0
     tauc_H81           11.602043      0.259155000009       3.00951700001                   0                   0                   0                   0
     tauc_H82      0.670524999997            1.043002       2.44003099999                   0                   0                   0                   0
     tauc_H83            6.275406            1.820155       3.91343099999                   0                   0                   0                   0
     tauc_H84      0.041025000007            1.332217       6.39086599999                   0                   0                   0                   0
     tauc_H85            2.412249       1.74823100001       1.44962700001                   0                   0                   0                   0
     tauc_H86            1.348912            1.080371      0.527653999994                   0                   0                   0                   0
     tauc_H87            3.031086       7.82581800001            4.632011                   0                   0                   0                   0
     tauc_H88              3.1622       9.40432599999       4.43036699999                   0                   0                   0                   0
     tauc_H89            9.841884       4.05143900001       3.61862699999                   0                   0                   0                   0
     tauc_H90            8.285664       3.90735099999       3.86165300001                   0                   0                   0                   0
     tauc_H91             9.20177           11.876747            4.555947                   0                   0                   0                   0
     tauc_H92      0.369106999991           11.974131       5.82570800001                   0                   0                   0                   0
     tauc_H93           11.573609       5.95059000001            6.623889                   0                   0                   0                   0
     tauc_H94            5.847509       3.17583499999             3.58367                   0                   0                   0                   0
     tauc_H95            3.423502           11.393342            1.690436                   0                   0                   0                   0
     tauc_H96       6.35777499999       8.69623599999       6.04116699999                   0                   0                   0                   0
     tauc_H97            1.409791       3.06340599999            5.887132                   0                   0                   0                   0
     tauc_H98             2.88265       3.12077699999       5.97870200001                   0                   0                   0                   0
     tauc_H99           10.436166       3.43642500001            5.783714                   0                   0                   0                   0
    tauc_H100       8.60606600001            4.945771            7.410717                   0                   0                   0                   0
    tauc_H101       3.56678900001           10.758177           11.163972                   0                   0                   0                   0
    tauc_H102       2.30099799999           11.309641           11.915282                   0                   0                   0                   0
    tauc_H103             3.66725       3.06969100001             8.71098                   0                   0                   0                   0
    tauc_H104            4.613689       3.16734500001            7.541203                   0                   0                   0                   0
    tauc_H105             3.91054           11.914935             2.97937                   0                   0                   0                   0
    tauc_H106             5.28917            8.274123            5.141018                   0                   0                   0                   0
    tauc_H107            1.038851            7.935432            3.888886                   0                   0                   0                   0
    tauc_H108       8.11907000001            3.553213       7.76194399999                   0                   0                   0                   0
    tauc_H109       5.67264500001       9.40724600001       1.22841400001                   0                   0                   0                   0
    tauc_H110            1.614933       6.60717099999       8.70677900001                   0                   0                   0                   0
    tauc_H111       1.54881399999       5.06296899999       8.05770299999                   0                   0                   0                   0
    tauc_H112       6.58676300001       3.61377799999       6.35994900001                   0                   0                   0                   0
    tauc_H113       9.25060099999            6.605148            2.780765                   0                   0                   0                   0
      tauc_O1      0.180291000002           11.374112     0.0532670000098                   0                   0                   0                   0
      tauc_O2       3.76802400001            2.174536           10.628131                   0                   0                   0                   0
      tauc_O3           10.342806           10.680617       2.05831199999                   0                   0                   0                   0
      tauc_O4       2.24463900001       4.90532000001            2.787901                   0                   0                   0                   0
      tauc_O5       3.85143999999            2.708189            2.601271                   0                   0                   0                   0
      tauc_O6      0.945912999998       7.39072000001            3.065495                   0                   0                   0                   0
      tauc_O7           11.494422            3.830739      0.617624000006                   0                   0                   0                   0
      tauc_O8       7.52330200001           10.828704            1.940855                   0                   0                   0                   0
      tauc_O9       8.67179299999       5.17722700001     0.0785889999962                   0                   0                   0                   0
     tauc_O10            5.071254            9.581878           11.207531                   0                   0                   0                   0
     tauc_O11      0.865172999992           11.583666            9.536937                   0                   0                   0                   0
     tauc_O12       5.94070399999            4.051776            6.909829                   0                   0                   0                   0
     tauc_O13       8.35129699999           10.808984            5.678984                   0                   0                   0                   0
     tauc_O14       5.60492300001      0.294497000007       5.57131100001                   0                   0                   0                   0
     tauc_O15       7.36177000001       9.60315400001       7.66389799999                   0                   0                   0                   0
     tauc_O16      0.327351999996       9.82218399999       4.60704400001                   0                   0                   0                   0
     tauc_O17            8.645948       7.93097399999            9.511052                   0                   0                   0                   0
     tauc_O18            1.809726           10.260503       2.25070300001                   0                   0                   0                   0
     tauc_O19           11.359603       5.98084999999       5.21342500001                   0                   0                   0                   0
     tauc_O20       5.96616500001     0.0558049999942           11.827919                   0                   0                   0                   0
     tauc_O21       6.38187599999            5.889605             3.05748                   0                   0                   0                   0
     tauc_O22       4.33281800001            4.938308       4.91716599999                   0                   0                   0                   0
     tauc_O23       6.46561100001            7.289319           11.641547                   0                   0                   0                   0
     tauc_O24             6.18155       6.64447000001       8.18016900001                   0                   0                   0                   0
     tauc_O25            2.900225           11.918047       4.95510400001                   0                   0                   0                   0
     tauc_O26            8.310312             8.07878       3.57669399999                   0                   0                   0                   0
     tauc_O27       9.21018999999       8.25236499999      0.564210999999                   0                   0                   0                   0
     tauc_O28       6.11337100001           11.996428            8.554276                   0                   0                   0                   0
     tauc_O29       3.30793199999           11.810749            8.025068                   0                   0                   0                   0
     tauc_O30           11.637417       6.93471900001       0.20700099999                   0                   0                   0                   0
     tauc_O31           10.194954            8.420763       6.99871400001                   0                   0                   0                   0
     tauc_O32            6.600636       4.36889299999           10.014647                   0                   0                   0                   0
     tauc_O33           11.421612              2.0592       9.44910699999                   0                   0                   0                   0
     tauc_O34            4.767688       8.97688100001       8.34734299999                   0                   0                   0                   0
     tauc_O35           10.907371       4.78437700001       9.52630399999                   0                   0                   0                   0
     tauc_O36       8.20662200001       6.34811100001       6.09901999999                   0                   0                   0                   0
     tauc_O37           10.059648            6.075245            2.483107                   0                   0                   0                   0
     tauc_O38       8.09572899999       1.81599699999             6.15449                   0                   0                   0                   0
     tauc_O39       5.50333900001       8.74031900001       1.85832000001                   0                   0                   0                   0
     tauc_O40           11.790485             3.51893       3.33864600001                   0                   0                   0                   0
     tauc_O41      0.489599000008      0.504262999996       3.17917899999                   0                   0                   0                   0
     tauc_O42      0.428813000003      0.507684000002            6.617272                   0                   0                   0                   0
     tauc_O43       1.58408699999            1.756903            1.084661                   0                   0                   0                   0
     tauc_O44       3.52217099999       8.52982600001            4.184912                   0                   0                   0                   0
     tauc_O45       9.17801200001       3.76282200001       4.20778299999                   0                   0                   0                   0
     tauc_O46            9.656976      0.508831000006       3.94595200001                   0                   0                   0                   0
     tauc_O47       6.51498800001       2.75312499999       4.08681299999                   0                   0                   0                   0
     tauc_O48            6.179245       8.03385399999       5.42745199999                   0                   0                   0                   0
     tauc_O49       2.17845900001            3.331331            5.416617                   0                   0                   0                   0
     tauc_O50           11.043323       3.17670599999       6.48969399999                   0                   0                   0                   0
     tauc_O51             3.12676           11.531044           11.468939                   0                   0                   0                   0
     tauc_O52            3.720864            2.839962       7.75748799999                   0                   0                   0                   0
     tauc_O53       4.13144600001           11.971079            2.086075                   0                   0                   0                   0
     tauc_O54       8.86853700001       4.18176200001       7.90161699999                   0                   0                   0                   0
     tauc_O55            1.902531            6.349129            5.376938                   0                   0                   0                   0
     tauc_O56       3.31315299999            7.146598            6.941772                   0                   0                   0                   0
      tauc_N1           11.912054       6.32183600001       7.58122900001                   0                   0                   0                   0
      tauc_C1       1.34669100001       6.11596000001            7.752469                   0                   0                   0                   0
      tauc_C2       2.21030500001            6.659968       6.54936599999                   0                   0                   0                   0


                          Volume (Bohr^3) = 11742.937938
                             Volume (A^3) = 1740.12178961

 Lattice vectors: (Cartesian coordinate: in unit of a_0)
              +12.028                  +0                  +0
                   +0             +12.028                  +0
                   +0                  +0             +12.028
 Reciprocal vectors: (Cartesian coordinate: in unit of 2 pi/a_0)
     +0.0831393415364                  -0                  +0
                   -0    +0.0831393415364                  -0
                   +0                  -0    +0.0831393415364




 >>>>>>>>>>>>>>>>>>>>>>>>>>>>>>>>>>>>>>>>>>>>>>>>>>>>>>>>>>>>>>>>>>>>>>
 |                                                                    |
 | Reading pseudopotentials files:                                    |
 | The pseudopotential file is in UPF format. The 'NC' indicates that |
 | the type of pseudopotential is 'norm conserving'. Functional of    |
 | exchange and correlation is decided by 4 given parameters in UPF   |
 | file.  We also read in the 'core correction' if there exists.      |
 | Also we can read the valence electrons number and the maximal      |
 | angular momentum used in this pseudopotential. We also read in the |
 | trail wave function, trail atomic density and local-pseudopotential|
 | on logrithmic grid. The non-local pseudopotential projector is also|
 | read in if there is any.                                           |
 |                                                                    |
 <<<<<<<<<<<<<<<<<<<<<<<<<<<<<<<<<<<<<<<<<<<<<<<<<<<<<<<<<<<<<<<<<<<<<<




                PAO radial cut off (Bohr) = 15

 Read in pseudopotential file is H_ONCV_PBE-1.0.upf
                     pseudopotential type = NC
          exchange-correlation functional = PBE
                 nonlocal core correction = 0
                        valence electrons = 1
                                     lmax = 0
                           number of zeta = 0
                     number of projectors = 2
                           L of projector = 0
                           L of projector = 0
                PAO radial cut off (Bohr) = 15

 Read in pseudopotential file is O_ONCV_PBE-1.0.upf
                     pseudopotential type = NC
          exchange-correlation functional = PBE
                 nonlocal core correction = 0
                        valence electrons = 6
                                     lmax = 1
                           number of zeta = 0
                     number of projectors = 4
                           L of projector = 0
                           L of projector = 0
                           L of projector = 1
                           L of projector = 1
                PAO radial cut off (Bohr) = 15

 Read in pseudopotential file is N_ONCV_PBE-1.0.upf
                     pseudopotential type = NC
          exchange-correlation functional = PBE
                 nonlocal core correction = 0
                        valence electrons = 5
                                     lmax = 1
                           number of zeta = 0
                     number of projectors = 4
                           L of projector = 0
                           L of projector = 0
                           L of projector = 1
                           L of projector = 1
                PAO radial cut off (Bohr) = 15

 Read in pseudopotential file is C_ONCV_PBE-1.0.upf
                     pseudopotential type = NC
          exchange-correlation functional = PBE
                 nonlocal core correction = 0
                        valence electrons = 4
                                     lmax = 1
                           number of zeta = 0
                     number of projectors = 4
                           L of projector = 0
                           L of projector = 0
                           L of projector = 1
                           L of projector = 1
     initial pseudo atomic orbital number = 0
                                   NLOCAL = 1548




 >>>>>>>>>>>>>>>>>>>>>>>>>>>>>>>>>>>>>>>>>>>>>>>>>>>>>>>>>>>>>>>>>>>>>>
 |                                                                    |
 | Setup plane waves of charge/potential:                             |
 | Use the energy cutoff and the lattice vectors to generate the      |
 | dimensions of FFT grid. The number of FFT grid on each processor   |
 | is 'nrxx'. The number of plane wave basis in reciprocal space is   |
 | different for charege/potential and wave functions. We also set    |
 | the 'sticks' for the parallel of FFT. The number of plane waves    |
 | is 'npw' in each processor.                                        |
 <<<<<<<<<<<<<<<<<<<<<<<<<<<<<<<<<<<<<<<<<<<<<<<<<<<<<<<<<<<<<<<<<<<<<<





 SETUP THE PLANE WAVE BASIS
 energy cutoff for charge/potential (unit:Ry) = 400
          [fft grid for charge/potential] = 150, 150, 150
                      [fft grid division] = 1, 1, 1
      [big fft grid for charge/potential] = 150, 150, 150
                                     nbxx = 180000
                                     nrxx = 180000

 SETUP PLANE WAVES FOR CHARGE/POTENTIAL
                    number of plane waves = 1586405
                         number of sticks = 16453

 PARALLEL PW FOR CHARGE/POTENTIAL
     PROC   COLUMNS(POT)             PW
        1            823          79321
        2            823          79321
        3            823          79321
        4            822          79320
        5            822          79320
        6            822          79320
        7            822          79320
        8            822          79320
        9            822          79320
       10            822          79320
       11            822          79320
       12            822          79320
       13            822          79320
       14            822          79320
       15            824          79320
       16            824          79320
       17            824          79320
       18            823          79321
       19            823          79321
       20            824          79320
 --------------- sum -------------------
       20          16453        1586405
                            number of |g| = 4271
                                  max |g| = 36.1781936815
                                  min |g| = 0.0138243002222

 SETUP THE ELECTRONS NUMBER
             electron number of element H = 1
       total electron number of element H = 113
             electron number of element O = 6
       total electron number of element O = 336
             electron number of element N = 5
       total electron number of element N = 5
             electron number of element C = 4
       total electron number of element C = 8
            AUTOSET number of electrons:  = 462
 DONE : SETUP UNITCELL Time : 0.529914140701 (SEC)





 >>>>>>>>>>>>>>>>>>>>>>>>>>>>>>>>>>>>>>>>>>>>>>>>>>>>>>>>>>>>>>>>>>>>>>
 |                                                                    |
 | Setup K-points                                                     |
 | We setup the k-points according to input parameters.               |
 | The reduced k-points are set according to symmetry operations.     |
 | We treat the spin as another set of k-points.                      |
 |                                                                    |
 <<<<<<<<<<<<<<<<<<<<<<<<<<<<<<<<<<<<<<<<<<<<<<<<<<<<<<<<<<<<<<<<<<<<<<





 SETUP K-POINTS
                                    nspin = 1
                   Input type of k points = Monkhorst-Pack(Gamma)
                                   nkstot = 1
                               nkstot_ibz = 1
      IBZ             DirectX             DirectY             DirectZ              Weight    ibz2bz
        1                   0                   0                   0                   1         0
                               nkstot now = 1

  KPOINTS            DIRECT_X            DIRECT_Y            DIRECT_Z              WEIGHT
        1                   0                   0                   0                   1

           k-point number in this process = 1
       minimum distributed K point number = 1

  KPOINTS         CARTESIAN_X         CARTESIAN_Y         CARTESIAN_Z              WEIGHT
        1                   0                   0                   0                   2

  KPOINTS            DIRECT_X            DIRECT_Y            DIRECT_Z              WEIGHT
        1                   0                   0                   0                   2
 DONE : INIT K-POINTS Time : 0.547142028809 (SEC)





 >>>>>>>>>>>>>>>>>>>>>>>>>>>>>>>>>>>>>>>>>>>>>>>>>>>>>>>>>>>>>>>>>>>>>>
 |                                                                    |
 | Setup plane waves of wave functions:                               |
 | Use the energy cutoff and the lattice vectors to generate the      |
 | dimensions of FFT grid. The number of FFT grid on each processor   |
 | is 'nrxx'. The number of plane wave basis in reciprocal space is   |
 | different for charege/potential and wave functions. We also set    |
 | the 'sticks' for the parallel of FFT. The number of plane wave of  |
 | each k-point is 'npwk[ik]' in each processor                       |
 <<<<<<<<<<<<<<<<<<<<<<<<<<<<<<<<<<<<<<<<<<<<<<<<<<<<<<<<<<<<<<<<<<<<<<





 SETUP PLANE WAVES FOR WAVE FUNCTIONS
     energy cutoff for wavefunc (unit:Ry) = 100
            [fft grid for wave functions] = 150, 150, 150
                    number of plane waves = 198173
                         number of sticks = 4117

 PARALLEL PW FOR WAVE FUNCTIONS
     PROC   COLUMNS(POT)             PW
        1            206           9910
        2            206           9910
        3            206           9910
        4            206           9910
        5            206           9910
        6            206           9910
        7            206           9910
        8            206           9910
        9            205           9907
       10            205           9907
       11            205           9907
       12            206           9908
       13            206           9908
       14            206           9908
       15            206           9908
       16            206           9908
       17            206           9908
       18            206           9908
       19            206           9908
       20            206           9908
 --------------- sum -------------------
       20           4117         198173
 DONE : INIT PLANEWAVE Time : 0.664633989334 (SEC)

                           occupied bands = 231
                                   NBANDS = 277
                                     npwx = 9910

 SETUP NONLOCAL PSEUDOPOTENTIALS IN PLANE WAVE BASIS
 H non-local projectors:
 projector 1 L=0
 projector 2 L=0
 O non-local projectors:
 projector 1 L=0
 projector 2 L=0
 projector 3 L=1
 projector 4 L=1
 N non-local projectors:
 projector 1 L=0
 projector 2 L=0
 projector 3 L=1
 projector 4 L=1
 C non-local projectors:
 projector 1 L=0
 projector 2 L=0
 projector 3 L=1
 projector 4 L=1
      TOTAL NUMBER OF NONLOCAL PROJECTORS = 698
 DONE : LOCAL POTENTIAL Time : 2.68665289879 (SEC)


 Init Non-Local PseudoPotential table : 
 Init Non-Local-Pseudopotential done.
 DONE : NON-LOCAL POTENTIAL Time : 2.80222082138 (SEC)


 Make real space PAO into reciprocal space.
       max mesh points in Pseudopotential = 601
     dq(describe PAO in reciprocal space) = 0.01
                                    max q = 1206

 number of pseudo atomic orbitals for H is 0

 number of pseudo atomic orbitals for O is 0

 number of pseudo atomic orbitals for N is 0

 number of pseudo atomic orbitals for C is 0
 DONE : INIT BASIS Time : 2.80246686935 (SEC)


 ><><><><><><><><><><><><><><><><><><><><><><><><><><><><><><><><><><><

 DeepKS descriptor: D_{Inl}

 ><><><><><><><><><><><><><><><><><><><><><><><><><><><><><><><><><><><

input lmax = 2
input rcut = 5
input tolerence = 1e-12
                                    kmesh = 1005
                                       dk = 0.01
                                    rmesh = 505
                                       dr = 0.01
 Initialize the mu index for deepks
 lmax = 2
 nmax = 15
Type 1 number_of_atoms 113 number_of_L 3 number_of_n 15 number_of_m 5
Type 2 number_of_atoms 56 number_of_L 3 number_of_n 15 number_of_m 5
Type 3 number_of_atoms 1 number_of_L 3 number_of_n 15 number_of_m 5
Type 4 number_of_atoms 2 number_of_L 3 number_of_n 15 number_of_m 5
 total number of atomic orbitals 23220
 DONE : GENERATE DESCRIPTOR FOR DEEPKS Time : 5.04332590103 (SEC)



 --------------------------------------------
 !FINAL_ETOT_IS 0 eV
 --------------------------------------------






  |CLASS_NAME---------|NAME---------------|TIME(Sec)-----|CALLS----|AVG------|PER%-------
                                      total         5.3725        15      0.36     1e+02%
                 Driver         driver_line         5.3576         1       5.4     1e+02%
               PW_Basis      setuptransform        0.43783         1      0.44       8.1%
             PW_Basis_K      setuptransform        0.10574         1      0.11         2%
               PW_Basis  setup_struc_factor         1.3971         1       1.4        26%
             ppcell_vnl                init        0.23354         1      0.23       4.3%
              ppcell_vl           init_vloc        0.37993         1      0.38       7.1%
             ppcell_vnl            init_vnl         0.1154         1      0.12       2.1%
                 Sphbes    Spherical_Bessel           1.53     62418   2.5e-05        28%
               Spillage            TableONe         2.2406         1       2.2        42%
 ----------------------------------------------------------------------------------------

 CLASS_NAME---------|NAME---------------|MEMORY(MB)--------
                                         58.98
             wavefunc                 psi          41.89
             PW_Basis           struc_fac          4.841
               Charge                 rho          1.373
               Charge            rho_save          1.373
               Charge            rho_core          1.373
            Potential   v_effective_fixed          1.373
            Potential              vr_eff          1.373
 ----------------------------------------------------------

 Start  Time  : Wed Dec 28 04:54:22 2022
 Finish Time  : Wed Dec 28 04:54:27 2022
 Total  Time  : 0 h 0 mins 5 secs 
